; Sodium laurate anion (C12) - MARTINI 2 coarse-grained topology
; 4 beads: Qa (carboxylate head) + 3x C1 (alkyl tail)

[moleculetype]
; molname  nrexcl
  LAU      1

[atoms]
; nr  type  resnr  residu  atom  cgnr  charge  mass
  1   Qa    1      LAU     COO   1     -1.0    72.0
  2   C1    1      LAU     C1A   2      0.0    72.0
  3   C1    1      LAU     C1B   3      0.0    72.0
  4   C1    1      LAU     C1C   4      0.0    72.0

[bonds]
; i  j  funct  length  force.c.
  1  2  1      0.47    1250
  2  3  1      0.47    1250
  3  4  1      0.47    1250

[angles]
; i  j  k  funct  angle  force.c.
  1  2  3  2      180.0  25.0
  2  3  4  2      180.0  25.0
