;
;   File final_system.top  was generated
;   By user: d.kretschmann (501)
;   On host:Mac.fritz.box 
;   At date:Fri. November  5 21:33:13 2025 
;
;   This is a standalone topology file
;
;   Created by:
;   ParmEd:       forcefields.py, VERSION4.3.0 
;   Executable:   forcefields.py
;   Library dir:  /usr/local/gromacs/share/gromacs/top
;   Command line:
;     forcefields.py
;

[ defaults ]
; nbfunc        comb-rule       gen-pairs       fudgeLJ fudgeQQ
1               2               no              1            0.833333    

[ atomtypes ]
; name    at.num    mass    charge ptype  sigma      epsilon
C1             6  12.010780  0.00000000  A     0.33795318     0.45538912
C2             6  12.010780  0.00000000  A     0.34806469     0.36350306
O1             8  15.999430  0.00000000  A     0.30398122     0.87950233
H1             1   1.007947  0.00000000  A     0.26445434    0.066021356
Na1           11  22.989769  0.00000000  A     0.24392807     0.36584603
O2             8  15.999430  0.00000000  A     0.31507524       0.635968
H2             1   1.007947  0.00000000  A              1              0


[ moleculetype ]
; Name            nrexcl
STL          3

[ atoms ]
;   nr       type  resnr residue  atom   cgnr    charge       mass  typeB    chargeB      massB
; residue    1 STL rtp STL q -1.0
    1         C1      1    STL    C1x      1 -0.09206364  12.010780   ; qtot -0.092064
    2         C1      1    STL    C2x      2 -0.07836364  12.010780   ; qtot -0.170427
    3         C1      1    STL    C3x      3 -0.07936364  12.010780   ; qtot -0.249791
    4         C1      1    STL    C4x      4 -0.07836364  12.010780   ; qtot -0.328155
    5         C1      1    STL    C5x      5 -0.08136364  12.010780   ; qtot -0.409518
    6         C1      1    STL    C6x      6 -0.07636364  12.010780   ; qtot -0.485882
    7         C1      1    STL    C7x      7 -0.07836364  12.010780   ; qtot -0.564245
    8         C1      1    STL    C8x      8 -0.07836364  12.010780   ; qtot -0.642609
    9         C1      1    STL    C9x      9 -0.08036364  12.010780   ; qtot -0.722973
   10         C1      1    STL   C10x     10 -0.07636364  12.010780   ; qtot -0.799336
   11         C1      1    STL   C11x     11 -0.07836364  12.010780   ; qtot -0.877700
   12         C1      1    STL   C12x     12 -0.07736364  12.010780   ; qtot -0.955064
   13         C1      1    STL   C13x     13 -0.08136364  12.010780   ; qtot -1.036427
   14         C1      1    STL   C14x     14 -0.06836364  12.010780   ; qtot -1.104791
   15         C1      1    STL   C15x     15 -0.09636364  12.010780   ; qtot -1.201155
   16         C1      1    STL   C16x     16 -0.04736364  12.010780   ; qtot -1.248518
   17         C1      1    STL   C17x     17 -0.19636364  12.010780   ; qtot -1.444882
   18         C2      1    STL   C18x     18 0.90663636  12.010780   ; qtot -0.538245
   19         O1      1    STL    O1x     19 -0.85376364  15.999430   ; qtot -1.392009
   20         O1      1    STL    O2x     20 -0.85376364  15.999430   ; qtot -2.245773
   21         H1      1    STL    H1x     21 0.03073636   1.007947   ; qtot -2.215036
   22         H1      1    STL    H2x     22 0.03073636   1.007947   ; qtot -2.184300
   23         H1      1    STL    H3x     23 0.03073636   1.007947   ; qtot -2.153564
   24         H1      1    STL    H4x     24 0.03573636   1.007947   ; qtot -2.117827
   25         H1      1    STL    H5x     25 0.03573636   1.007947   ; qtot -2.082091
   26         H1      1    STL    H6x     26 0.04173636   1.007947   ; qtot -2.040355
   27         H1      1    STL    H7x     27 0.04173636   1.007947   ; qtot -1.998618
   28         H1      1    STL    H8x     28 0.03573636   1.007947   ; qtot -1.962882
   29         H1      1    STL    H9x     29 0.03573636   1.007947   ; qtot -1.927145
   30         H1      1    STL   H10x     30 0.04423636   1.007947   ; qtot -1.882909
   31         H1      1    STL   H11x     31 0.04423636   1.007947   ; qtot -1.838673
   32         H1      1    STL   H12x     32 0.03373636   1.007947   ; qtot -1.804936
   33         H1      1    STL   H13x     33 0.03373636   1.007947   ; qtot -1.771200
   34         H1      1    STL   H14x     34 0.03973636   1.007947   ; qtot -1.731464
   35         H1      1    STL   H15x     35 0.03973636   1.007947   ; qtot -1.691727
   36         H1      1    STL   H16x     36 0.03673636   1.007947   ; qtot -1.654991
   37         H1      1    STL   H17x     37 0.03673636   1.007947   ; qtot -1.618255
   38         H1      1    STL   H18x     38 0.04173636   1.007947   ; qtot -1.576518
   39         H1      1    STL   H19x     39 0.04173636   1.007947   ; qtot -1.534782
   40         H1      1    STL   H20x     40 0.03373636   1.007947   ; qtot -1.501045
   41         H1      1    STL   H21x     41 0.03373636   1.007947   ; qtot -1.467309
   42         H1      1    STL   H22x     42 0.03423636   1.007947   ; qtot -1.433073
   43         H1      1    STL   H23x     43 0.03423636   1.007947   ; qtot -1.398836
   44         H1      1    STL   H24x     44 0.04173636   1.007947   ; qtot -1.357100
   45         H1      1    STL   H25x     45 0.04173636   1.007947   ; qtot -1.315364
   46         H1      1    STL   H26x     46 0.04723636   1.007947   ; qtot -1.268127
   47         H1      1    STL   H27x     47 0.04723636   1.007947   ; qtot -1.220891
   48         H1      1    STL   H28x     48 0.01623636   1.007947   ; qtot -1.204655
   49         H1      1    STL   H29x     49 0.01623636   1.007947   ; qtot -1.188418
   50         H1      1    STL   H30x     50 0.06073636   1.007947   ; qtot -1.127682
   51         H1      1    STL   H31x     51 0.06073636   1.007947   ; qtot -1.066945
   52         H1      1    STL   H32x     52 0.01323636   1.007947   ; qtot -1.053709
   53         H1      1    STL   H33x     53 0.01323636   1.007947   ; qtot -1.040473
   54         H1      1    STL   H34x     54 0.02023636   1.007947   ; qtot -1.020236
   55         H1      1    STL   H35x     55 0.02023636   1.007947   ; qtot -1.000000

[ bonds ]
;    ai     aj funct         c0         c1         c2         c3
      1      2     1   0.15336 180164.203624
      2      3     1   0.15336 180164.203624
      3      4     1   0.15336 180164.203624
      4      5     1   0.15336 180164.203624
      5      6     1   0.15336 180164.203624
      6      7     1   0.15336 180164.203624
      7      8     1   0.15336 180164.203624
      8      9     1   0.15336 180164.203624
      9     10     1   0.15336 180164.203624
     10     11     1   0.15336 180164.203624
     11     12     1   0.15336 180164.203624
     12     13     1   0.15336 180164.203624
     13     14     1   0.15336 180164.203624
     14     15     1   0.15336 180164.203624
     15     16     1   0.15336 180164.203624
     16     17     1   0.15336 180164.203624
     17     18     1   0.15290 169566.719233
     18     19     1   0.12598 494316.775774
     18     20     1   0.12598 494316.775774
      1     21     1   0.10942 299423.062558
      1     22     1   0.10942 299423.062558
      1     23     1   0.10942 299423.062558
      2     24     1   0.10942 299423.062558
      2     25     1   0.10942 299423.062558
      3     26     1   0.10942 299423.062558
      3     27     1   0.10942 299423.062558
      4     28     1   0.10942 299423.062558
      4     29     1   0.10942 299423.062558
      5     30     1   0.10942 299423.062558
      5     31     1   0.10942 299423.062558
      6     32     1   0.10942 299423.062558
      6     33     1   0.10942 299423.062558
      7     34     1   0.10942 299423.062558
      7     35     1   0.10942 299423.062558
      8     36     1   0.10942 299423.062558
      8     37     1   0.10942 299423.062558
      9     38     1   0.10942 299423.062558
      9     39     1   0.10942 299423.062558
     10     40     1   0.10942 299423.062558
     10     41     1   0.10942 299423.062558
     11     42     1   0.10942 299423.062558
     11     43     1   0.10942 299423.062558
     12     44     1   0.10942 299423.062558
     12     45     1   0.10942 299423.062558
     13     46     1   0.10942 299423.062558
     13     47     1   0.10942 299423.062558
     14     48     1   0.10942 299423.062558
     14     49     1   0.10942 299423.062558
     15     50     1   0.10942 299423.062558
     15     51     1   0.10942 299423.062558
     16     52     1   0.10942 299423.062558
     16     53     1   0.10942 299423.062558
     17     54     1   0.10942 299423.062558
     17     55     1   0.10942 299423.062558

[ pairs ]
;    ai     aj funct         c0         c1         c2         c3
      1      4     1 0.337953176 0.227694558
      2      5     1 0.337953176 0.227694558
      3      6     1 0.337953176 0.227694558
      4      7     1 0.337953176 0.227694558
      5      8     1 0.337953176 0.227694558
      6      9     1 0.337953176 0.227694558
      7     10     1 0.337953176 0.227694558
      8     11     1 0.337953176 0.227694558
      9     12     1 0.337953176 0.227694558
     10     13     1 0.337953176 0.227694558
     11     14     1 0.337953176 0.227694558
     12     15     1 0.337953176 0.227694558
     13     16     1 0.337953176 0.227694558
     14     17     1 0.337953176 0.227694558
     15     18     1 0.343008932 0.203430169
     16     19     1 0.320967198 0.316431583
     16     20     1 0.320967198 0.316431583
      3     21     1 0.301203759 0.086696896
      3     22     1 0.301203759 0.086696896
      3     23     1 0.301203759 0.086696896
      4     24     1 0.301203759 0.086696896
     21     24     1 0.264454341 0.033010678
     22     24     1 0.264454341 0.033010678
     23     24     1 0.264454341 0.033010678
      4     25     1 0.301203759 0.086696896
     21     25     1 0.264454341 0.033010678
     22     25     1 0.264454341 0.033010678
     23     25     1 0.264454341 0.033010678
      1     26     1 0.301203759 0.086696896
      5     26     1 0.301203759 0.086696896
     24     26     1 0.264454341 0.033010678
     25     26     1 0.264454341 0.033010678
      1     27     1 0.301203759 0.086696896
      5     27     1 0.301203759 0.086696896
     24     27     1 0.264454341 0.033010678
     25     27     1 0.264454341 0.033010678
      2     28     1 0.301203759 0.086696896
      6     28     1 0.301203759 0.086696896
     26     28     1 0.264454341 0.033010678
     27     28     1 0.264454341 0.033010678
      2     29     1 0.301203759 0.086696896
      6     29     1 0.301203759 0.086696896
     26     29     1 0.264454341 0.033010678
     27     29     1 0.264454341 0.033010678
      3     30     1 0.301203759 0.086696896
      7     30     1 0.301203759 0.086696896
     28     30     1 0.264454341 0.033010678
     29     30     1 0.264454341 0.033010678
      3     31     1 0.301203759 0.086696896
      7     31     1 0.301203759 0.086696896
     28     31     1 0.264454341 0.033010678
     29     31     1 0.264454341 0.033010678
      4     32     1 0.301203759 0.086696896
      8     32     1 0.301203759 0.086696896
     30     32     1 0.264454341 0.033010678
     31     32     1 0.264454341 0.033010678
      4     33     1 0.301203759 0.086696896
      8     33     1 0.301203759 0.086696896
     30     33     1 0.264454341 0.033010678
     31     33     1 0.264454341 0.033010678
      5     34     1 0.301203759 0.086696896
      9     34     1 0.301203759 0.086696896
     32     34     1 0.264454341 0.033010678
     33     34     1 0.264454341 0.033010678
      5     35     1 0.301203759 0.086696896
      9     35     1 0.301203759 0.086696896
     32     35     1 0.264454341 0.033010678
     33     35     1 0.264454341 0.033010678
      6     36     1 0.301203759 0.086696896
     10     36     1 0.301203759 0.086696896
     34     36     1 0.264454341 0.033010678
     35     36     1 0.264454341 0.033010678
      6     37     1 0.301203759 0.086696896
     10     37     1 0.301203759 0.086696896
     34     37     1 0.264454341 0.033010678
     35     37     1 0.264454341 0.033010678
      7     38     1 0.301203759 0.086696896
     11     38     1 0.301203759 0.086696896
     36     38     1 0.264454341 0.033010678
     37     38     1 0.264454341 0.033010678
      7     39     1 0.301203759 0.086696896
     11     39     1 0.301203759 0.086696896
     36     39     1 0.264454341 0.033010678
     37     39     1 0.264454341 0.033010678
      8     40     1 0.301203759 0.086696896
     12     40     1 0.301203759 0.086696896
     38     40     1 0.264454341 0.033010678
     39     40     1 0.264454341 0.033010678
      8     41     1 0.301203759 0.086696896
     12     41     1 0.301203759 0.086696896
     38     41     1 0.264454341 0.033010678
     39     41     1 0.264454341 0.033010678
      9     42     1 0.301203759 0.086696896
     13     42     1 0.301203759 0.086696896
     40     42     1 0.264454341 0.033010678
     41     42     1 0.264454341 0.033010678
      9     43     1 0.301203759 0.086696896
     13     43     1 0.301203759 0.086696896
     40     43     1 0.264454341 0.033010678
     41     43     1 0.264454341 0.033010678
     10     44     1 0.301203759 0.086696896
     14     44     1 0.301203759 0.086696896
     42     44     1 0.264454341 0.033010678
     43     44     1 0.264454341 0.033010678
     10     45     1 0.301203759 0.086696896
     14     45     1 0.301203759 0.086696896
     42     45     1 0.264454341 0.033010678
     43     45     1 0.264454341 0.033010678
     11     46     1 0.301203759 0.086696896
     15     46     1 0.301203759 0.086696896
     44     46     1 0.264454341 0.033010678
     45     46     1 0.264454341 0.033010678
     11     47     1 0.301203759 0.086696896
     15     47     1 0.301203759 0.086696896
     44     47     1 0.264454341 0.033010678
     45     47     1 0.264454341 0.033010678
     12     48     1 0.301203759 0.086696896
     16     48     1 0.301203759 0.086696896
     46     48     1 0.264454341 0.033010678
     47     48     1 0.264454341 0.033010678
     12     49     1 0.301203759 0.086696896
     16     49     1 0.301203759 0.086696896
     46     49     1 0.264454341 0.033010678
     47     49     1 0.264454341 0.033010678
     13     50     1 0.301203759 0.086696896
     17     50     1 0.301203759 0.086696896
     48     50     1 0.264454341 0.033010678
     49     50     1 0.264454341 0.033010678
     13     51     1 0.301203759 0.086696896
     17     51     1 0.301203759 0.086696896
     48     51     1 0.264454341 0.033010678
     49     51     1 0.264454341 0.033010678
     14     52     1 0.301203759 0.086696896
     18     52     1 0.306259515 0.077457996
     50     52     1 0.264454341 0.033010678
     51     52     1 0.264454341 0.033010678
     14     53     1 0.301203759 0.086696896
     18     53     1 0.306259515 0.077457996
     50     53     1 0.264454341 0.033010678
     51     53     1 0.264454341 0.033010678
     15     54     1 0.301203759 0.086696896
     19     54     1 0.284217781 0.120484373
     20     54     1 0.284217781 0.120484373
     52     54     1 0.264454341 0.033010678
     53     54     1 0.264454341 0.033010678
     15     55     1 0.301203759 0.086696896
     19     55     1 0.284217781 0.120484373
     20     55     1 0.284217781 0.120484373
     52     55     1 0.264454341 0.033010678
     53     55     1 0.264454341 0.033010678

[ angles ]
;    ai     aj     ak funct         c0         c1         c2         c3
      1      2      3     1   109.9380528 558.616872
      1      2     24     1   109.9380528 558.616872
      1      2     25     1   109.9380528 558.616872
      2      1     21     1   109.9380528 558.616872
      2      1     22     1   109.9380528 558.616872
      2      1     23     1   109.9380528 558.616872
      2      3      4     1   109.9380528 558.616872
      2      3     26     1   109.9380528 558.616872
      2      3     27     1   109.9380528 558.616872
      3      2     24     1   109.9380528 558.616872
      3      2     25     1   109.9380528 558.616872
      3      4      5     1   109.9380528 558.616872
      3      4     28     1   109.9380528 558.616872
      3      4     29     1   109.9380528 558.616872
      4      3     26     1   109.9380528 558.616872
      4      3     27     1   109.9380528 558.616872
      4      5      6     1   109.9380528 558.616872
      4      5     30     1   109.9380528 558.616872
      4      5     31     1   109.9380528 558.616872
      5      4     28     1   109.9380528 558.616872
      5      4     29     1   109.9380528 558.616872
      5      6      7     1   109.9380528 558.616872
      5      6     32     1   109.9380528 558.616872
      5      6     33     1   109.9380528 558.616872
      6      5     30     1   109.9380528 558.616872
      6      5     31     1   109.9380528 558.616872
      6      7      8     1   109.9380528 558.616872
      6      7     34     1   109.9380528 558.616872
      6      7     35     1   109.9380528 558.616872
      7      6     32     1   109.9380528 558.616872
      7      6     33     1   109.9380528 558.616872
      7      8      9     1   109.9380528 558.616872
      7      8     36     1   109.9380528 558.616872
      7      8     37     1   109.9380528 558.616872
      8      7     34     1   109.9380528 558.616872
      8      7     35     1   109.9380528 558.616872
      8      9     10     1   109.9380528 558.616872
      8      9     38     1   109.9380528 558.616872
      8      9     39     1   109.9380528 558.616872
      9      8     36     1   109.9380528 558.616872
      9      8     37     1   109.9380528 558.616872
      9     10     11     1   109.9380528 558.616872
      9     10     40     1   109.9380528 558.616872
      9     10     41     1   109.9380528 558.616872
     10      9     38     1   109.9380528 558.616872
     10      9     39     1   109.9380528 558.616872
     10     11     12     1   109.9380528 558.616872
     10     11     42     1   109.9380528 558.616872
     10     11     43     1   109.9380528 558.616872
     11     10     40     1   109.9380528 558.616872
     11     10     41     1   109.9380528 558.616872
     11     12     13     1   109.9380528 558.616872
     11     12     44     1   109.9380528 558.616872
     11     12     45     1   109.9380528 558.616872
     12     11     42     1   109.9380528 558.616872
     12     11     43     1   109.9380528 558.616872
     12     13     14     1   109.9380528 558.616872
     12     13     46     1   109.9380528 558.616872
     12     13     47     1   109.9380528 558.616872
     13     12     44     1   109.9380528 558.616872
     13     12     45     1   109.9380528 558.616872
     13     14     15     1   109.9380528 558.616872
     13     14     48     1   109.9380528 558.616872
     13     14     49     1   109.9380528 558.616872
     14     13     46     1   109.9380528 558.616872
     14     13     47     1   109.9380528 558.616872
     14     15     16     1   109.9380528 558.616872
     14     15     50     1   109.9380528 558.616872
     14     15     51     1   109.9380528 558.616872
     15     14     48     1   109.9380528 558.616872
     15     14     49     1   109.9380528 558.616872
     15     16     17     1   109.9380528 558.616872
     15     16     52     1   109.9380528 558.616872
     15     16     53     1   109.9380528 558.616872
     16     15     50     1   109.9380528 558.616872
     16     15     51     1   109.9380528 558.616872
     16     17     18     1   109.9380528 558.616872
     16     17     54     1   109.9380528 558.616872
     16     17     55     1   109.9380528 558.616872
     17     16     52     1   109.9380528 558.616872
     17     16     53     1   109.9380528 558.616872
     17     18     19     1   120.1049996 707.494800
     17     18     20     1   120.1049996 707.494800
     18     17     54     1   109.9380528 558.616872
     18     17     55     1   109.9380528 558.616872
     19     18     20     1   123.6058900 529.778360
     21      1     22     1   108.3543135 307.746906
     21      1     23     1   108.3543135 307.746906
     22      1     23     1   108.3543135 307.746906
     24      2     25     1   108.3543135 307.746906
     26      3     27     1   108.3543135 307.746906
     28      4     29     1   108.3543135 307.746906
     30      5     31     1   108.3543135 307.746906
     32      6     33     1   108.3543135 307.746906
     34      7     35     1   108.3543135 307.746906
     36      8     37     1   108.3543135 307.746906
     38      9     39     1   108.3543135 307.746906
     40     10     41     1   108.3543135 307.746906
     42     11     43     1   108.3543135 307.746906
     44     12     45     1   108.3543135 307.746906
     46     13     47     1   108.3543135 307.746906
     48     14     49     1   108.3543135 307.746906
     50     15     51     1   108.3543135 307.746906
     52     16     53     1   108.3543135 307.746906
     54     17     55     1   108.3543135 307.746906

[ dihedrals ]
;    ai     aj     ak     al funct         c0         c1         c2         c3         c4         c5
      1      2      3      4     1  0.0000000  1.4851809  3
      1      2      3      4     1  180.0000000  1.0038704  2
      1      2      3      4     1  180.0000000  3.8309129  1
      1      2      3     26     1  0.0000000  0.4122821  3
      1      2      3     27     1  0.0000000  0.4122821  3
      2      3      4      5     1  0.0000000  1.4851809  3
      2      3      4      5     1  180.0000000  1.0038704  2
      2      3      4      5     1  180.0000000  3.8309129  1
      2      3      4     28     1  0.0000000  0.4122821  3
      2      3      4     29     1  0.0000000  0.4122821  3
      3      2      1     21     1  0.0000000  0.4122821  3
      3      2      1     22     1  0.0000000  0.4122821  3
      3      2      1     23     1  0.0000000  0.4122821  3
      3      4      5      6     1  0.0000000  1.4851809  3
      3      4      5      6     1  180.0000000  1.0038704  2
      3      4      5      6     1  180.0000000  3.8309129  1
      3      4      5     30     1  0.0000000  0.4122821  3
      3      4      5     31     1  0.0000000  0.4122821  3
      4      3      2     24     1  0.0000000  0.4122821  3
      4      3      2     25     1  0.0000000  0.4122821  3
      4      5      6      7     1  0.0000000  1.4851809  3
      4      5      6      7     1  180.0000000  1.0038704  2
      4      5      6      7     1  180.0000000  3.8309129  1
      4      5      6     32     1  0.0000000  0.4122821  3
      4      5      6     33     1  0.0000000  0.4122821  3
      5      4      3     26     1  0.0000000  0.4122821  3
      5      4      3     27     1  0.0000000  0.4122821  3
      5      6      7      8     1  0.0000000  1.4851809  3
      5      6      7      8     1  180.0000000  1.0038704  2
      5      6      7      8     1  180.0000000  3.8309129  1
      5      6      7     34     1  0.0000000  0.4122821  3
      5      6      7     35     1  0.0000000  0.4122821  3
      6      5      4     28     1  0.0000000  0.4122821  3
      6      5      4     29     1  0.0000000  0.4122821  3
      6      7      8      9     1  0.0000000  1.4851809  3
      6      7      8      9     1  180.0000000  1.0038704  2
      6      7      8      9     1  180.0000000  3.8309129  1
      6      7      8     36     1  0.0000000  0.4122821  3
      6      7      8     37     1  0.0000000  0.4122821  3
      7      6      5     30     1  0.0000000  0.4122821  3
      7      6      5     31     1  0.0000000  0.4122821  3
      7      8      9     10     1  0.0000000  1.4851809  3
      7      8      9     10     1  180.0000000  1.0038704  2
      7      8      9     10     1  180.0000000  3.8309129  1
      7      8      9     38     1  0.0000000  0.4122821  3
      7      8      9     39     1  0.0000000  0.4122821  3
      8      7      6     32     1  0.0000000  0.4122821  3
      8      7      6     33     1  0.0000000  0.4122821  3
      8      9     10     11     1  0.0000000  1.4851809  3
      8      9     10     11     1  180.0000000  1.0038704  2
      8      9     10     11     1  180.0000000  3.8309129  1
      8      9     10     40     1  0.0000000  0.4122821  3
      8      9     10     41     1  0.0000000  0.4122821  3
      9      8      7     34     1  0.0000000  0.4122821  3
      9      8      7     35     1  0.0000000  0.4122821  3
      9     10     11     12     1  0.0000000  1.4851809  3
      9     10     11     12     1  180.0000000  1.0038704  2
      9     10     11     12     1  180.0000000  3.8309129  1
      9     10     11     42     1  0.0000000  0.4122821  3
      9     10     11     43     1  0.0000000  0.4122821  3
     10      9      8     36     1  0.0000000  0.4122821  3
     10      9      8     37     1  0.0000000  0.4122821  3
     10     11     12     13     1  0.0000000  1.4851809  3
     10     11     12     13     1  180.0000000  1.0038704  2
     10     11     12     13     1  180.0000000  3.8309129  1
     10     11     12     44     1  0.0000000  0.4122821  3
     10     11     12     45     1  0.0000000  0.4122821  3
     11     10      9     38     1  0.0000000  0.4122821  3
     11     10      9     39     1  0.0000000  0.4122821  3
     11     12     13     14     1  0.0000000  1.4851809  3
     11     12     13     14     1  180.0000000  1.0038704  2
     11     12     13     14     1  180.0000000  3.8309129  1
     11     12     13     46     1  0.0000000  0.4122821  3
     11     12     13     47     1  0.0000000  0.4122821  3
     12     11     10     40     1  0.0000000  0.4122821  3
     12     11     10     41     1  0.0000000  0.4122821  3
     12     13     14     15     1  0.0000000  1.4851809  3
     12     13     14     15     1  180.0000000  1.0038704  2
     12     13     14     15     1  180.0000000  3.8309129  1
     12     13     14     48     1  0.0000000  0.4122821  3
     12     13     14     49     1  0.0000000  0.4122821  3
     13     12     11     42     1  0.0000000  0.4122821  3
     13     12     11     43     1  0.0000000  0.4122821  3
     13     14     15     16     1  0.0000000  1.4851809  3
     13     14     15     16     1  180.0000000  1.0038704  2
     13     14     15     16     1  180.0000000  3.8309129  1
     13     14     15     50     1  0.0000000  0.4122821  3
     13     14     15     51     1  0.0000000  0.4122821  3
     14     13     12     44     1  0.0000000  0.4122821  3
     14     13     12     45     1  0.0000000  0.4122821  3
     14     15     16     17     1  0.0000000  1.4851809  3
     14     15     16     17     1  180.0000000  1.0038704  2
     14     15     16     17     1  180.0000000  3.8309129  1
     14     15     16     52     1  0.0000000  0.4122821  3
     14     15     16     53     1  0.0000000  0.4122821  3
     15     14     13     46     1  0.0000000  0.4122821  3
     15     14     13     47     1  0.0000000  0.4122821  3
     15     16     17     18     1  0.0000000  0.6020980  3
     15     16     17     54     1  0.0000000  0.4122821  3
     15     16     17     55     1  0.0000000  0.4122821  3
     16     15     14     48     1  0.0000000  0.4122821  3
     16     15     14     49     1  0.0000000  0.4122821  3
     16     17     18     19     1  0.0000000  -0.8557567  2
     16     17     18     20     1  0.0000000  -0.8557567  2
     17     16     15     50     1  0.0000000  0.4122821  3
     17     16     15     51     1  0.0000000  0.4122821  3
     18     17     16     52     1  0.0000000  0.6020980  3
     18     17     16     53     1  0.0000000  0.6020980  3
     19     18     17     54     1  0.0000000  -0.2406864  1
     19     18     17     54     1  0.0000000  1.4324918  2
     19     18     17     54     1  180.0000000  1.0644473  3
     19     18     17     55     1  0.0000000  -0.2406864  1
     19     18     17     55     1  0.0000000  1.4324918  2
     19     18     17     55     1  180.0000000  1.0644473  3
     20     18     17     54     1  0.0000000  -0.2406864  1
     20     18     17     54     1  0.0000000  1.4324918  2
     20     18     17     54     1  180.0000000  1.0644473  3
     20     18     17     55     1  0.0000000  -0.2406864  1
     20     18     17     55     1  0.0000000  1.4324918  2
     20     18     17     55     1  180.0000000  1.0644473  3
     21      1      2     24     1  0.0000000  0.9539296  3
     21      1      2     25     1  0.0000000  0.9539296  3
     22      1      2     24     1  0.0000000  0.9539296  3
     22      1      2     25     1  0.0000000  0.9539296  3
     23      1      2     24     1  0.0000000  0.9539296  3
     23      1      2     25     1  0.0000000  0.9539296  3
     24      2      3     26     1  0.0000000  0.9539296  3
     24      2      3     27     1  0.0000000  0.9539296  3
     25      2      3     26     1  0.0000000  0.9539296  3
     25      2      3     27     1  0.0000000  0.9539296  3
     26      3      4     28     1  0.0000000  0.9539296  3
     26      3      4     29     1  0.0000000  0.9539296  3
     27      3      4     28     1  0.0000000  0.9539296  3
     27      3      4     29     1  0.0000000  0.9539296  3
     28      4      5     30     1  0.0000000  0.9539296  3
     28      4      5     31     1  0.0000000  0.9539296  3
     29      4      5     30     1  0.0000000  0.9539296  3
     29      4      5     31     1  0.0000000  0.9539296  3
     30      5      6     32     1  0.0000000  0.9539296  3
     30      5      6     33     1  0.0000000  0.9539296  3
     31      5      6     32     1  0.0000000  0.9539296  3
     31      5      6     33     1  0.0000000  0.9539296  3
     32      6      7     34     1  0.0000000  0.9539296  3
     32      6      7     35     1  0.0000000  0.9539296  3
     33      6      7     34     1  0.0000000  0.9539296  3
     33      6      7     35     1  0.0000000  0.9539296  3
     34      7      8     36     1  0.0000000  0.9539296  3
     34      7      8     37     1  0.0000000  0.9539296  3
     35      7      8     36     1  0.0000000  0.9539296  3
     35      7      8     37     1  0.0000000  0.9539296  3
     36      8      9     38     1  0.0000000  0.9539296  3
     36      8      9     39     1  0.0000000  0.9539296  3
     37      8      9     38     1  0.0000000  0.9539296  3
     37      8      9     39     1  0.0000000  0.9539296  3
     38      9     10     40     1  0.0000000  0.9539296  3
     38      9     10     41     1  0.0000000  0.9539296  3
     39      9     10     40     1  0.0000000  0.9539296  3
     39      9     10     41     1  0.0000000  0.9539296  3
     40     10     11     42     1  0.0000000  0.9539296  3
     40     10     11     43     1  0.0000000  0.9539296  3
     41     10     11     42     1  0.0000000  0.9539296  3
     41     10     11     43     1  0.0000000  0.9539296  3
     42     11     12     44     1  0.0000000  0.9539296  3
     42     11     12     45     1  0.0000000  0.9539296  3
     43     11     12     44     1  0.0000000  0.9539296  3
     43     11     12     45     1  0.0000000  0.9539296  3
     44     12     13     46     1  0.0000000  0.9539296  3
     44     12     13     47     1  0.0000000  0.9539296  3
     45     12     13     46     1  0.0000000  0.9539296  3
     45     12     13     47     1  0.0000000  0.9539296  3
     46     13     14     48     1  0.0000000  0.9539296  3
     46     13     14     49     1  0.0000000  0.9539296  3
     47     13     14     48     1  0.0000000  0.9539296  3
     47     13     14     49     1  0.0000000  0.9539296  3
     48     14     15     50     1  0.0000000  0.9539296  3
     48     14     15     51     1  0.0000000  0.9539296  3
     49     14     15     50     1  0.0000000  0.9539296  3
     49     14     15     51     1  0.0000000  0.9539296  3
     50     15     16     52     1  0.0000000  0.9539296  3
     50     15     16     53     1  0.0000000  0.9539296  3
     51     15     16     52     1  0.0000000  0.9539296  3
     51     15     16     53     1  0.0000000  0.9539296  3
     52     16     17     54     1  0.0000000  0.9539296  3
     52     16     17     55     1  0.0000000  0.9539296  3
     53     16     17     54     1  0.0000000  0.9539296  3
     53     16     17     55     1  0.0000000  0.9539296  3
     18     20     17     19     1  180.0000000  18.0130916  2
     18     17     19     20     1  180.0000000  18.0130916  2
     18     19     20     17     1  180.0000000  18.0130916  2


[ moleculetype ]
; Name            nrexcl
NA          3

[ atoms ]
;   nr       type  resnr residue  atom   cgnr    charge       mass  typeB    chargeB      massB
; residue    1 NA rtp NA q 1.0
    1        Na1      1     NA             1 1.00000000  22.989769   ; qtot 1.000000


[ moleculetype ]
; Name            nrexcl
HOH          3

[ atoms ]
;   nr       type  resnr residue  atom   cgnr    charge       mass  typeB    chargeB      massB
; residue    1 HOH rtp HOH q 0.0
    1         O2      1    HOH      O      1 -0.83400000  15.999430   ; qtot -0.834000
    2         H2      1    HOH     H1      2 0.41700000   1.007947   ; qtot -0.417000
    3         H2      1    HOH     H2      3 0.41700000   1.007947   ; qtot 0.000000


#else

[ settles ]
; i     funct   doh     dhh
